#Script for P22-CD40L complex. To be read into LAMMPS template.
#LAMMPS  data    file
632 atoms
1440 bonds
3 atom types
3 bond types
-5.56672 5.56672 xlo xhi
-5.56672 5.56672 ylo yhi
-5.56672 5.56672 zlo zhi

Atoms

1	1	2	-0.0708875	0.2181695	0.775813
2	1	2	-0.229397	0	0.775813
3	1	2	-0.0708875	-0.2181695	0.775813
4	1	2	0.1855861667	-0.1348361667	0.775813
5	1	2	0.1855861667	0.1348361667	0.775813
6	1	2	0.414983	-0.4681695	-0.512947
7	1	2	0.5734925	0.25	-0.512947
8	1	2	-0.0605455	0.622678	-0.512947
9	1	2	-0.6109116667	0.1348361667	-0.512947
10	1	2	-0.3170191667	-0.5393446667	-0.512947
11	1	2	0.0167345	0.7575141667	0.28355
12	1	2	-0.7152676667	0.25	0.28355
13	1	2	-0.458794	-0.6030056667	0.28355
14	1	2	0.4317176667	-0.622678	0.28355
15	1	2	0.7256101667	0.2181695	0.28355
16	1	2	0.458794	-0.6030056667	-0.28355
17	1	2	0.7152676667	0.25	-0.28355
18	1	2	-0.0167345	0.7575141667	-0.28355
19	1	2	-0.7256101667	0.2181695	-0.28355
20	1	2	-0.4317176667	-0.622678	-0.28355
21	1	2	0.0605455	0.622678	0.512947
22	1	2	-0.5734925	0.25	0.512947
23	1	2	-0.414983	-0.4681695	0.512947
24	1	2	0.3170191667	-0.5393446667	0.512947
25	1	2	0.6109116667	0.1348361667	0.512947
26	1	2	-0.0605455	-0.622678	-0.512947
27	1	2	0.5734925	-0.25	-0.512947
28	1	2	0.414983	0.4681695	-0.512947
29	1	2	-0.3170191667	0.5393446667	-0.512947
30	1	2	-0.6109116667	-0.1348361667	-0.512947
31	1	2	-0.2461315	0.7575141667	-0.141775
32	1	2	-0.7964976667	0	-0.141775
33	1	2	-0.2461315	-0.7575141667	-0.141775
34	1	2	0.6443801667	-0.4681695	-0.141775
35	1	2	0.6443801667	0.4681695	-0.141775
36	1	2	0.2461315	-0.7575141667	0.141775
37	1	2	0.7964976667	0	0.141775
38	1	2	0.2461315	0.7575141667	0.141775
39	1	2	-0.6443801667	0.4681695	0.141775
40	1	2	-0.6443801667	-0.4681695	0.141775
41	1	2	-0.414983	0.4681695	0.512947
42	1	2	-0.5734925	-0.25	0.512947
43	1	2	0.0605455	-0.622678	0.512947
44	1	2	0.6109116667	-0.1348361667	0.512947
45	1	2	0.3170191667	0.5393446667	0.512947
46	1	2	0.0708875	-0.2181695	-0.775813
47	1	2	0.229397	0	-0.775813
48	1	2	0.0708875	0.2181695	-0.775813
49	1	2	-0.1855861667	0.1348361667	-0.775813
50	1	2	-0.1855861667	-0.1348361667	-0.775813
51	1	2	-0.458794	0.6030056667	0.28355
52	1	2	-0.7152676667	-0.25	0.28355
53	1	2	0.0167345	-0.7575141667	0.28355
54	1	2	0.7256101667	-0.2181695	0.28355
55	1	2	0.4317176667	0.622678	0.28355
56	1	2	-0.0167345	-0.7575141667	-0.28355
57	1	2	0.7152676667	-0.25	-0.28355
58	1	2	0.458794	0.6030056667	-0.28355
59	1	2	-0.4317176667	0.622678	-0.28355
60	1	2	-0.7256101667	-0.2181695	-0.28355
61	1	1	0	0	0
62	2	3	-5.56672	-5.56672	-5.56672
63	2	3	-5.56672	-4.56672	-5.56672
64	2	3	-5.56672	-3.56672	-5.56672
65	2	3	-5.56672	-2.56672	-5.56672
66	2	3	-5.56672	-1.56672	-5.56672
67	2	3	-5.56672	-0.56672	-5.56672
68	2	3	-5.56672	0.43328	-5.56672
69	2	3	-5.56672	1.43328	-5.56672
70	2	3	-5.56672	2.43328	-5.56672
71	2	3	-5.56672	3.43328	-5.56672
72	2	3	-5.56672	4.43328	-5.56672
73	2	3	-5.56672	5.43328	-5.56672
74	2	3	-5.56672	-5.56672	-4.56672
75	2	3	-5.56672	-4.56672	-4.56672
76	2	3	-5.56672	-3.56672	-4.56672
77	2	3	-5.56672	-2.56672	-4.56672
78	2	3	-5.56672	-1.56672	-4.56672
79	2	3	-5.56672	-0.56672	-4.56672
80	2	3	-5.56672	0.43328	-4.56672
81	2	3	-5.56672	1.43328	-4.56672
82	2	3	-5.56672	2.43328	-4.56672
83	2	3	-5.56672	3.43328	-4.56672
84	2	3	-5.56672	4.43328	-4.56672
85	2	3	-5.56672	5.43328	-4.56672
86	2	3	-5.56672	-5.56672	-3.56672
87	2	3	-5.56672	-4.56672	-3.56672
88	2	3	-5.56672	-3.56672	-3.56672
89	2	3	-5.56672	-2.56672	-3.56672
90	2	3	-5.56672	-1.56672	-3.56672
91	2	3	-5.56672	-0.56672	-3.56672
92	2	3	-5.56672	0.43328	-3.56672
93	2	3	-5.56672	1.43328	-3.56672
94	2	3	-5.56672	2.43328	-3.56672
95	2	3	-5.56672	3.43328	-3.56672
96	2	3	-5.56672	4.43328	-3.56672
97	2	3	-5.56672	5.43328	-3.56672
98	2	3	-5.56672	-5.56672	-2.56672
99	2	3	-5.56672	-4.56672	-2.56672
100	2	3	-5.56672	-3.56672	-2.56672
101	2	3	-5.56672	-2.56672	-2.56672
102	2	3	-5.56672	-1.56672	-2.56672
103	2	3	-5.56672	-0.56672	-2.56672
104	2	3	-5.56672	0.43328	-2.56672
105	2	3	-5.56672	1.43328	-2.56672
106	2	3	-5.56672	2.43328	-2.56672
107	2	3	-5.56672	3.43328	-2.56672
108	2	3	-5.56672	4.43328	-2.56672
109	2	3	-5.56672	5.43328	-2.56672
110	2	3	-5.56672	-5.56672	-1.56672
111	2	3	-5.56672	-4.56672	-1.56672
112	2	3	-5.56672	-3.56672	-1.56672
113	2	3	-5.56672	-2.56672	-1.56672
114	2	3	-5.56672	-1.56672	-1.56672
115	2	3	-5.56672	-0.56672	-1.56672
116	2	3	-5.56672	0.43328	-1.56672
117	2	3	-5.56672	1.43328	-1.56672
118	2	3	-5.56672	2.43328	-1.56672
119	2	3	-5.56672	3.43328	-1.56672
120	2	3	-5.56672	4.43328	-1.56672
121	2	3	-5.56672	5.43328	-1.56672
122	2	3	-5.56672	-5.56672	-0.56672
123	2	3	-5.56672	-4.56672	-0.56672
124	2	3	-5.56672	-3.56672	-0.56672
125	2	3	-5.56672	-2.56672	-0.56672
126	2	3	-5.56672	-1.56672	-0.56672
127	2	3	-5.56672	-0.56672	-0.56672
128	2	3	-5.56672	0.43328	-0.56672
129	2	3	-5.56672	1.43328	-0.56672
130	2	3	-5.56672	2.43328	-0.56672
131	2	3	-5.56672	3.43328	-0.56672
132	2	3	-5.56672	4.43328	-0.56672
133	2	3	-5.56672	5.43328	-0.56672
134	2	3	-5.56672	-5.56672	0.43328
135	2	3	-5.56672	-4.56672	0.43328
136	2	3	-5.56672	-3.56672	0.43328
137	2	3	-5.56672	-2.56672	0.43328
138	2	3	-5.56672	-1.56672	0.43328
139	2	3	-5.56672	-0.56672	0.43328
140	2	3	-5.56672	0.43328	0.43328
141	2	3	-5.56672	1.43328	0.43328
142	2	3	-5.56672	2.43328	0.43328
143	2	3	-5.56672	3.43328	0.43328
144	2	3	-5.56672	4.43328	0.43328
145	2	3	-5.56672	5.43328	0.43328
146	2	3	-5.56672	-5.56672	1.43328
147	2	3	-5.56672	-4.56672	1.43328
148	2	3	-5.56672	-3.56672	1.43328
149	2	3	-5.56672	-2.56672	1.43328
150	2	3	-5.56672	-1.56672	1.43328
151	2	3	-5.56672	-0.56672	1.43328
152	2	3	-5.56672	0.43328	1.43328
153	2	3	-5.56672	1.43328	1.43328
154	2	3	-5.56672	2.43328	1.43328
155	2	3	-5.56672	3.43328	1.43328
156	2	3	-5.56672	4.43328	1.43328
157	2	3	-5.56672	5.43328	1.43328
158	2	3	-5.56672	-5.56672	2.43328
159	2	3	-5.56672	-4.56672	2.43328
160	2	3	-5.56672	-3.56672	2.43328
161	2	3	-5.56672	-2.56672	2.43328
162	2	3	-5.56672	-1.56672	2.43328
163	2	3	-5.56672	-0.56672	2.43328
164	2	3	-5.56672	0.43328	2.43328
165	2	3	-5.56672	1.43328	2.43328
166	2	3	-5.56672	2.43328	2.43328
167	2	3	-5.56672	3.43328	2.43328
168	2	3	-5.56672	4.43328	2.43328
169	2	3	-5.56672	5.43328	2.43328
170	2	3	-5.56672	-5.56672	3.43328
171	2	3	-5.56672	-4.56672	3.43328
172	2	3	-5.56672	-3.56672	3.43328
173	2	3	-5.56672	-2.56672	3.43328
174	2	3	-5.56672	-1.56672	3.43328
175	2	3	-5.56672	-0.56672	3.43328
176	2	3	-5.56672	0.43328	3.43328
177	2	3	-5.56672	1.43328	3.43328
178	2	3	-5.56672	2.43328	3.43328
179	2	3	-5.56672	3.43328	3.43328
180	2	3	-5.56672	4.43328	3.43328
181	2	3	-5.56672	5.43328	3.43328
182	2	3	-5.56672	-5.56672	4.43328
183	2	3	-5.56672	-4.56672	4.43328
184	2	3	-5.56672	-3.56672	4.43328
185	2	3	-5.56672	-2.56672	4.43328
186	2	3	-5.56672	-1.56672	4.43328
187	2	3	-5.56672	-0.56672	4.43328
188	2	3	-5.56672	0.43328	4.43328
189	2	3	-5.56672	1.43328	4.43328
190	2	3	-5.56672	2.43328	4.43328
191	2	3	-5.56672	3.43328	4.43328
192	2	3	-5.56672	4.43328	4.43328
193	2	3	-5.56672	5.43328	4.43328
194	2	3	-5.56672	-5.56672	5.43328
195	2	3	-5.56672	-4.56672	5.43328
196	2	3	-5.56672	-3.56672	5.43328
197	2	3	-5.56672	-2.56672	5.43328
198	2	3	-5.56672	-1.56672	5.43328
199	2	3	-5.56672	-0.56672	5.43328
200	2	3	-5.56672	0.43328	5.43328
201	2	3	-5.56672	1.43328	5.43328
202	2	3	-5.56672	2.43328	5.43328
203	2	3	-5.56672	3.43328	5.43328
204	2	3	-5.56672	4.43328	5.43328
205	2	3	-5.56672	5.43328	5.43328
206	3	2	1.9291125	0.2181695	0.775813
207	3	2	1.770603	0	0.775813
208	3	2	1.9291125	-0.2181695	0.775813
209	3	2	2.185586167	-0.1348361667	0.775813
210	3	2	2.185586167	0.1348361667	0.775813
211	3	2	2.414983	-0.4681695	-0.512947
212	3	2	2.5734925	0.25	-0.512947
213	3	2	1.9394545	0.622678	-0.512947
214	3	2	1.389088333	0.1348361667	-0.512947
215	3	2	1.682980833	-0.5393446667	-0.512947
216	3	2	2.0167345	0.7575141667	0.28355
217	3	2	1.284732333	0.25	0.28355
218	3	2	1.541206	-0.6030056667	0.28355
219	3	2	2.431717667	-0.622678	0.28355
220	3	2	2.725610167	0.2181695	0.28355
221	3	2	2.458794	-0.6030056667	-0.28355
222	3	2	2.715267667	0.25	-0.28355
223	3	2	1.9832655	0.7575141667	-0.28355
224	3	2	1.274389833	0.2181695	-0.28355
225	3	2	1.568282333	-0.622678	-0.28355
226	3	2	2.0605455	0.622678	0.512947
227	3	2	1.4265075	0.25	0.512947
228	3	2	1.585017	-0.4681695	0.512947
229	3	2	2.317019167	-0.5393446667	0.512947
230	3	2	2.610911667	0.1348361667	0.512947
231	3	2	1.9394545	-0.622678	-0.512947
232	3	2	2.5734925	-0.25	-0.512947
233	3	2	2.414983	0.4681695	-0.512947
234	3	2	1.682980833	0.5393446667	-0.512947
235	3	2	1.389088333	-0.1348361667	-0.512947
236	3	2	1.7538685	0.7575141667	-0.141775
237	3	2	1.203502333	0	-0.141775
238	3	2	1.7538685	-0.7575141667	-0.141775
239	3	2	2.644380167	-0.4681695	-0.141775
240	3	2	2.644380167	0.4681695	-0.141775
241	3	2	2.2461315	-0.7575141667	0.141775
242	3	2	2.796497667	0	0.141775
243	3	2	2.2461315	0.7575141667	0.141775
244	3	2	1.355619833	0.4681695	0.141775
245	3	2	1.355619833	-0.4681695	0.141775
246	3	2	1.585017	0.4681695	0.512947
247	3	2	1.4265075	-0.25	0.512947
248	3	2	2.0605455	-0.622678	0.512947
249	3	2	2.610911667	-0.1348361667	0.512947
250	3	2	2.317019167	0.5393446667	0.512947
251	3	2	2.0708875	-0.2181695	-0.775813
252	3	2	2.229397	0	-0.775813
253	3	2	2.0708875	0.2181695	-0.775813
254	3	2	1.814413833	0.1348361667	-0.775813
255	3	2	1.814413833	-0.1348361667	-0.775813
256	3	2	1.541206	0.6030056667	0.28355
257	3	2	1.284732333	-0.25	0.28355
258	3	2	2.0167345	-0.7575141667	0.28355
259	3	2	2.725610167	-0.2181695	0.28355
260	3	2	2.431717667	0.622678	0.28355
261	3	2	1.9832655	-0.7575141667	-0.28355
262	3	2	2.715267667	-0.25	-0.28355
263	3	2	2.458794	0.6030056667	-0.28355
264	3	2	1.568282333	0.622678	-0.28355
265	3	2	1.274389833	-0.2181695	-0.28355
266	3	1	2	0	0
267	4	2	-0.0708875	2.2181695	0.775813
268	4	2	-0.229397	2	0.775813
269	4	2	-0.0708875	1.7818305	0.775813
270	4	2	0.1855861667	1.865163833	0.775813
271	4	2	0.1855861667	2.134836167	0.775813
272	4	2	0.414983	1.5318305	-0.512947
273	4	2	0.5734925	2.25	-0.512947
274	4	2	-0.0605455	2.622678	-0.512947
275	4	2	-0.6109116667	2.134836167	-0.512947
276	4	2	-0.3170191667	1.460655333	-0.512947
277	4	2	0.0167345	2.757514167	0.28355
278	4	2	-0.7152676667	2.25	0.28355
279	4	2	-0.458794	1.396994333	0.28355
280	4	2	0.4317176667	1.377322	0.28355
281	4	2	0.7256101667	2.2181695	0.28355
282	4	2	0.458794	1.396994333	-0.28355
283	4	2	0.7152676667	2.25	-0.28355
284	4	2	-0.0167345	2.757514167	-0.28355
285	4	2	-0.7256101667	2.2181695	-0.28355
286	4	2	-0.4317176667	1.377322	-0.28355
287	4	2	0.0605455	2.622678	0.512947
288	4	2	-0.5734925	2.25	0.512947
289	4	2	-0.414983	1.5318305	0.512947
290	4	2	0.3170191667	1.460655333	0.512947
291	4	2	0.6109116667	2.134836167	0.512947
292	4	2	-0.0605455	1.377322	-0.512947
293	4	2	0.5734925	1.75	-0.512947
294	4	2	0.414983	2.4681695	-0.512947
295	4	2	-0.3170191667	2.539344667	-0.512947
296	4	2	-0.6109116667	1.865163833	-0.512947
297	4	2	-0.2461315	2.757514167	-0.141775
298	4	2	-0.7964976667	2	-0.141775
299	4	2	-0.2461315	1.242485833	-0.141775
300	4	2	0.6443801667	1.5318305	-0.141775
301	4	2	0.6443801667	2.4681695	-0.141775
302	4	2	0.2461315	1.242485833	0.141775
303	4	2	0.7964976667	2	0.141775
304	4	2	0.2461315	2.757514167	0.141775
305	4	2	-0.6443801667	2.4681695	0.141775
306	4	2	-0.6443801667	1.5318305	0.141775
307	4	2	-0.414983	2.4681695	0.512947
308	4	2	-0.5734925	1.75	0.512947
309	4	2	0.0605455	1.377322	0.512947
310	4	2	0.6109116667	1.865163833	0.512947
311	4	2	0.3170191667	2.539344667	0.512947
312	4	2	0.0708875	1.7818305	-0.775813
313	4	2	0.229397	2	-0.775813
314	4	2	0.0708875	2.2181695	-0.775813
315	4	2	-0.1855861667	2.134836167	-0.775813
316	4	2	-0.1855861667	1.865163833	-0.775813
317	4	2	-0.458794	2.603005667	0.28355
318	4	2	-0.7152676667	1.75	0.28355
319	4	2	0.0167345	1.242485833	0.28355
320	4	2	0.7256101667	1.7818305	0.28355
321	4	2	0.4317176667	2.622678	0.28355
322	4	2	-0.0167345	1.242485833	-0.28355
323	4	2	0.7152676667	1.75	-0.28355
324	4	2	0.458794	2.603005667	-0.28355
325	4	2	-0.4317176667	2.622678	-0.28355
326	4	2	-0.7256101667	1.7818305	-0.28355
327	4	1	0	2	0
328	5	2	1.9291125	2.2181695	0.775813
329	5	2	1.770603	2	0.775813
330	5	2	1.9291125	1.7818305	0.775813
331	5	2	2.185586167	1.865163833	0.775813
332	5	2	2.185586167	2.134836167	0.775813
333	5	2	2.414983	1.5318305	-0.512947
334	5	2	2.5734925	2.25	-0.512947
335	5	2	1.9394545	2.622678	-0.512947
336	5	2	1.389088333	2.134836167	-0.512947
337	5	2	1.682980833	1.460655333	-0.512947
338	5	2	2.0167345	2.757514167	0.28355
339	5	2	1.284732333	2.25	0.28355
340	5	2	1.541206	1.396994333	0.28355
341	5	2	2.431717667	1.377322	0.28355
342	5	2	2.725610167	2.2181695	0.28355
343	5	2	2.458794	1.396994333	-0.28355
344	5	2	2.715267667	2.25	-0.28355
345	5	2	1.9832655	2.757514167	-0.28355
346	5	2	1.274389833	2.2181695	-0.28355
347	5	2	1.568282333	1.377322	-0.28355
348	5	2	2.0605455	2.622678	0.512947
349	5	2	1.4265075	2.25	0.512947
350	5	2	1.585017	1.5318305	0.512947
351	5	2	2.317019167	1.460655333	0.512947
352	5	2	2.610911667	2.134836167	0.512947
353	5	2	1.9394545	1.377322	-0.512947
354	5	2	2.5734925	1.75	-0.512947
355	5	2	2.414983	2.4681695	-0.512947
356	5	2	1.682980833	2.539344667	-0.512947
357	5	2	1.389088333	1.865163833	-0.512947
358	5	2	1.7538685	2.757514167	-0.141775
359	5	2	1.203502333	2	-0.141775
360	5	2	1.7538685	1.242485833	-0.141775
361	5	2	2.644380167	1.5318305	-0.141775
362	5	2	2.644380167	2.4681695	-0.141775
363	5	2	2.2461315	1.242485833	0.141775
364	5	2	2.796497667	2	0.141775
365	5	2	2.2461315	2.757514167	0.141775
366	5	2	1.355619833	2.4681695	0.141775
367	5	2	1.355619833	1.5318305	0.141775
368	5	2	1.585017	2.4681695	0.512947
369	5	2	1.4265075	1.75	0.512947
370	5	2	2.0605455	1.377322	0.512947
371	5	2	2.610911667	1.865163833	0.512947
372	5	2	2.317019167	2.539344667	0.512947
373	5	2	2.0708875	1.7818305	-0.775813
374	5	2	2.229397	2	-0.775813
375	5	2	2.0708875	2.2181695	-0.775813
376	5	2	1.814413833	2.134836167	-0.775813
377	5	2	1.814413833	1.865163833	-0.775813
378	5	2	1.541206	2.603005667	0.28355
379	5	2	1.284732333	1.75	0.28355
380	5	2	2.0167345	1.242485833	0.28355
381	5	2	2.725610167	1.7818305	0.28355
382	5	2	2.431717667	2.622678	0.28355
383	5	2	1.9832655	1.242485833	-0.28355
384	5	2	2.715267667	1.75	-0.28355
385	5	2	2.458794	2.603005667	-0.28355
386	5	2	1.568282333	2.622678	-0.28355
387	5	2	1.274389833	1.7818305	-0.28355
388	5	1	2	2	0
389	6	2	1.9291125	0.2181695	2.775813
390	6	2	1.770603	0	2.775813
391	6	2	1.9291125	-0.2181695	2.775813
392	6	2	2.185586167	-0.1348361667	2.775813
393	6	2	2.185586167	0.1348361667	2.775813
394	6	2	2.414983	-0.4681695	1.487053
395	6	2	2.5734925	0.25	1.487053
396	6	2	1.9394545	0.622678	1.487053
397	6	2	1.389088333	0.1348361667	1.487053
398	6	2	1.682980833	-0.5393446667	1.487053
399	6	2	2.0167345	0.7575141667	2.28355
400	6	2	1.284732333	0.25	2.28355
401	6	2	1.541206	-0.6030056667	2.28355
402	6	2	2.431717667	-0.622678	2.28355
403	6	2	2.725610167	0.2181695	2.28355
404	6	2	2.458794	-0.6030056667	1.71645
405	6	2	2.715267667	0.25	1.71645
406	6	2	1.9832655	0.7575141667	1.71645
407	6	2	1.274389833	0.2181695	1.71645
408	6	2	1.568282333	-0.622678	1.71645
409	6	2	2.0605455	0.622678	2.512947
410	6	2	1.4265075	0.25	2.512947
411	6	2	1.585017	-0.4681695	2.512947
412	6	2	2.317019167	-0.5393446667	2.512947
413	6	2	2.610911667	0.1348361667	2.512947
414	6	2	1.9394545	-0.622678	1.487053
415	6	2	2.5734925	-0.25	1.487053
416	6	2	2.414983	0.4681695	1.487053
417	6	2	1.682980833	0.5393446667	1.487053
418	6	2	1.389088333	-0.1348361667	1.487053
419	6	2	1.7538685	0.7575141667	1.858225
420	6	2	1.203502333	0	1.858225
421	6	2	1.7538685	-0.7575141667	1.858225
422	6	2	2.644380167	-0.4681695	1.858225
423	6	2	2.644380167	0.4681695	1.858225
424	6	2	2.2461315	-0.7575141667	2.141775
425	6	2	2.796497667	0	2.141775
426	6	2	2.2461315	0.7575141667	2.141775
427	6	2	1.355619833	0.4681695	2.141775
428	6	2	1.355619833	-0.4681695	2.141775
429	6	2	1.585017	0.4681695	2.512947
430	6	2	1.4265075	-0.25	2.512947
431	6	2	2.0605455	-0.622678	2.512947
432	6	2	2.610911667	-0.1348361667	2.512947
433	6	2	2.317019167	0.5393446667	2.512947
434	6	2	2.0708875	-0.2181695	1.224187
435	6	2	2.229397	0	1.224187
436	6	2	2.0708875	0.2181695	1.224187
437	6	2	1.814413833	0.1348361667	1.224187
438	6	2	1.814413833	-0.1348361667	1.224187
439	6	2	1.541206	0.6030056667	2.28355
440	6	2	1.284732333	-0.25	2.28355
441	6	2	2.0167345	-0.7575141667	2.28355
442	6	2	2.725610167	-0.2181695	2.28355
443	6	2	2.431717667	0.622678	2.28355
444	6	2	1.9832655	-0.7575141667	1.71645
445	6	2	2.715267667	-0.25	1.71645
446	6	2	2.458794	0.6030056667	1.71645
447	6	2	1.568282333	0.622678	1.71645
448	6	2	1.274389833	-0.2181695	1.71645
449	6	1	2	0	2
450	7	2	-0.0708875	2.2181695	2.775813
451	7	2	-0.229397	2	2.775813
452	7	2	-0.0708875	1.7818305	2.775813
453	7	2	0.1855861667	1.865163833	2.775813
454	7	2	0.1855861667	2.134836167	2.775813
455	7	2	0.414983	1.5318305	1.487053
456	7	2	0.5734925	2.25	1.487053
457	7	2	-0.0605455	2.622678	1.487053
458	7	2	-0.6109116667	2.134836167	1.487053
459	7	2	-0.3170191667	1.460655333	1.487053
460	7	2	0.0167345	2.757514167	2.28355
461	7	2	-0.7152676667	2.25	2.28355
462	7	2	-0.458794	1.396994333	2.28355
463	7	2	0.4317176667	1.377322	2.28355
464	7	2	0.7256101667	2.2181695	2.28355
465	7	2	0.458794	1.396994333	1.71645
466	7	2	0.7152676667	2.25	1.71645
467	7	2	-0.0167345	2.757514167	1.71645
468	7	2	-0.7256101667	2.2181695	1.71645
469	7	2	-0.4317176667	1.377322	1.71645
470	7	2	0.0605455	2.622678	2.512947
471	7	2	-0.5734925	2.25	2.512947
472	7	2	-0.414983	1.5318305	2.512947
473	7	2	0.3170191667	1.460655333	2.512947
474	7	2	0.6109116667	2.134836167	2.512947
475	7	2	-0.0605455	1.377322	1.487053
476	7	2	0.5734925	1.75	1.487053
477	7	2	0.414983	2.4681695	1.487053
478	7	2	-0.3170191667	2.539344667	1.487053
479	7	2	-0.6109116667	1.865163833	1.487053
480	7	2	-0.2461315	2.757514167	1.858225
481	7	2	-0.7964976667	2	1.858225
482	7	2	-0.2461315	1.242485833	1.858225
483	7	2	0.6443801667	1.5318305	1.858225
484	7	2	0.6443801667	2.4681695	1.858225
485	7	2	0.2461315	1.242485833	2.141775
486	7	2	0.7964976667	2	2.141775
487	7	2	0.2461315	2.757514167	2.141775
488	7	2	-0.6443801667	2.4681695	2.141775
489	7	2	-0.6443801667	1.5318305	2.141775
490	7	2	-0.414983	2.4681695	2.512947
491	7	2	-0.5734925	1.75	2.512947
492	7	2	0.0605455	1.377322	2.512947
493	7	2	0.6109116667	1.865163833	2.512947
494	7	2	0.3170191667	2.539344667	2.512947
495	7	2	0.0708875	1.7818305	1.224187
496	7	2	0.229397	2	1.224187
497	7	2	0.0708875	2.2181695	1.224187
498	7	2	-0.1855861667	2.134836167	1.224187
499	7	2	-0.1855861667	1.865163833	1.224187
500	7	2	-0.458794	2.603005667	2.28355
501	7	2	-0.7152676667	1.75	2.28355
502	7	2	0.0167345	1.242485833	2.28355
503	7	2	0.7256101667	1.7818305	2.28355
504	7	2	0.4317176667	2.622678	2.28355
505	7	2	-0.0167345	1.242485833	1.71645
506	7	2	0.7152676667	1.75	1.71645
507	7	2	0.458794	2.603005667	1.71645
508	7	2	-0.4317176667	2.622678	1.71645
509	7	2	-0.7256101667	1.7818305	1.71645
510	7	1	0	2	2
511	8	2	1.9291125	2.2181695	2.775813
512	8	2	1.770603	2	2.775813
513	8	2	1.9291125	1.7818305	2.775813
514	8	2	2.185586167	1.865163833	2.775813
515	8	2	2.185586167	2.134836167	2.775813
516	8	2	2.414983	1.5318305	1.487053
517	8	2	2.5734925	2.25	1.487053
518	8	2	1.9394545	2.622678	1.487053
519	8	2	1.389088333	2.134836167	1.487053
520	8	2	1.682980833	1.460655333	1.487053
521	8	2	2.0167345	2.757514167	2.28355
522	8	2	1.284732333	2.25	2.28355
523	8	2	1.541206	1.396994333	2.28355
524	8	2	2.431717667	1.377322	2.28355
525	8	2	2.725610167	2.2181695	2.28355
526	8	2	2.458794	1.396994333	1.71645
527	8	2	2.715267667	2.25	1.71645
528	8	2	1.9832655	2.757514167	1.71645
529	8	2	1.274389833	2.2181695	1.71645
530	8	2	1.568282333	1.377322	1.71645
531	8	2	2.0605455	2.622678	2.512947
532	8	2	1.4265075	2.25	2.512947
533	8	2	1.585017	1.5318305	2.512947
534	8	2	2.317019167	1.460655333	2.512947
535	8	2	2.610911667	2.134836167	2.512947
536	8	2	1.9394545	1.377322	1.487053
537	8	2	2.5734925	1.75	1.487053
538	8	2	2.414983	2.4681695	1.487053
539	8	2	1.682980833	2.539344667	1.487053
540	8	2	1.389088333	1.865163833	1.487053
541	8	2	1.7538685	2.757514167	1.858225
542	8	2	1.203502333	2	1.858225
543	8	2	1.7538685	1.242485833	1.858225
544	8	2	2.644380167	1.5318305	1.858225
545	8	2	2.644380167	2.4681695	1.858225
546	8	2	2.2461315	1.242485833	2.141775
547	8	2	2.796497667	2	2.141775
548	8	2	2.2461315	2.757514167	2.141775
549	8	2	1.355619833	2.4681695	2.141775
550	8	2	1.355619833	1.5318305	2.141775
551	8	2	1.585017	2.4681695	2.512947
552	8	2	1.4265075	1.75	2.512947
553	8	2	2.0605455	1.377322	2.512947
554	8	2	2.610911667	1.865163833	2.512947
555	8	2	2.317019167	2.539344667	2.512947
556	8	2	2.0708875	1.7818305	1.224187
557	8	2	2.229397	2	1.224187
558	8	2	2.0708875	2.2181695	1.224187
559	8	2	1.814413833	2.134836167	1.224187
560	8	2	1.814413833	1.865163833	1.224187
561	8	2	1.541206	2.603005667	2.28355
562	8	2	1.284732333	1.75	2.28355
563	8	2	2.0167345	1.242485833	2.28355
564	8	2	2.725610167	1.7818305	2.28355
565	8	2	2.431717667	2.622678	2.28355
566	8	2	1.9832655	1.242485833	1.71645
567	8	2	2.715267667	1.75	1.71645
568	8	2	2.458794	2.603005667	1.71645
569	8	2	1.568282333	2.622678	1.71645
570	8	2	1.274389833	1.7818305	1.71645
571	8	1	2	2	2
572	9	2	-0.0708875	0.2181695	2.775813
573	9	2	-0.229397	0	2.775813
574	9	2	-0.0708875	-0.2181695	2.775813
575	9	2	0.1855861667	-0.1348361667	2.775813
576	9	2	0.1855861667	0.1348361667	2.775813
577	9	2	0.414983	-0.4681695	1.487053
578	9	2	0.5734925	0.25	1.487053
579	9	2	-0.0605455	0.622678	1.487053
580	9	2	-0.6109116667	0.1348361667	1.487053
581	9	2	-0.3170191667	-0.5393446667	1.487053
582	9	2	0.0167345	0.7575141667	2.28355
583	9	2	-0.7152676667	0.25	2.28355
584	9	2	-0.458794	-0.6030056667	2.28355
585	9	2	0.4317176667	-0.622678	2.28355
586	9	2	0.7256101667	0.2181695	2.28355
587	9	2	0.458794	-0.6030056667	1.71645
588	9	2	0.7152676667	0.25	1.71645
589	9	2	-0.0167345	0.7575141667	1.71645
590	9	2	-0.7256101667	0.2181695	1.71645
591	9	2	-0.4317176667	-0.622678	1.71645
592	9	2	0.0605455	0.622678	2.512947
593	9	2	-0.5734925	0.25	2.512947
594	9	2	-0.414983	-0.4681695	2.512947
595	9	2	0.3170191667	-0.5393446667	2.512947
596	9	2	0.6109116667	0.1348361667	2.512947
597	9	2	-0.0605455	-0.622678	1.487053
598	9	2	0.5734925	-0.25	1.487053
599	9	2	0.414983	0.4681695	1.487053
600	9	2	-0.3170191667	0.5393446667	1.487053
601	9	2	-0.6109116667	-0.1348361667	1.487053
602	9	2	-0.2461315	0.7575141667	1.858225
603	9	2	-0.7964976667	0	1.858225
604	9	2	-0.2461315	-0.7575141667	1.858225
605	9	2	0.6443801667	-0.4681695	1.858225
606	9	2	0.6443801667	0.4681695	1.858225
607	9	2	0.2461315	-0.7575141667	2.141775
608	9	2	0.7964976667	0	2.141775
609	9	2	0.2461315	0.7575141667	2.141775
610	9	2	-0.6443801667	0.4681695	2.141775
611	9	2	-0.6443801667	-0.4681695	2.141775
612	9	2	-0.414983	0.4681695	2.512947
613	9	2	-0.5734925	-0.25	2.512947
614	9	2	0.0605455	-0.622678	2.512947
615	9	2	0.6109116667	-0.1348361667	2.512947
616	9	2	0.3170191667	0.5393446667	2.512947
617	9	2	0.0708875	-0.2181695	1.224187
618	9	2	0.229397	0	1.224187
619	9	2	0.0708875	0.2181695	1.224187
620	9	2	-0.1855861667	0.1348361667	1.224187
621	9	2	-0.1855861667	-0.1348361667	1.224187
622	9	2	-0.458794	0.6030056667	2.28355
623	9	2	-0.7152676667	-0.25	2.28355
624	9	2	0.0167345	-0.7575141667	2.28355
625	9	2	0.7256101667	-0.2181695	2.28355
626	9	2	0.4317176667	0.622678	2.28355
627	9	2	-0.0167345	-0.7575141667	1.71645
628	9	2	0.7152676667	-0.25	1.71645
629	9	2	0.458794	0.6030056667	1.71645
630	9	2	-0.4317176667	0.622678	1.71645
631	9	2	-0.7256101667	-0.2181695	1.71645
632	9	1	0	0	2

Bonds

1	1	1	61
2	1	2	61
3	1	3	61
4	1	4	61
5	1	5	61
6	1	6	61
7	1	7	61
8	1	8	61
9	1	9	61
10	1	10	61
11	1	11	61
12	1	12	61
13	1	13	61
14	1	14	61
15	1	15	61
16	1	16	61
17	1	17	61
18	1	18	61
19	1	19	61
20	1	20	61
21	1	21	61
22	1	22	61
23	1	23	61
24	1	24	61
25	1	25	61
26	1	26	61
27	1	27	61
28	1	28	61
29	1	29	61
30	1	30	61
31	1	31	61
32	1	32	61
33	1	33	61
34	1	34	61
35	1	35	61
36	1	36	61
37	1	37	61
38	1	38	61
39	1	39	61
40	1	40	61
41	1	41	61
42	1	42	61
43	1	43	61
44	1	44	61
45	1	45	61
46	1	46	61
47	1	47	61
48	1	48	61
49	1	49	61
50	1	50	61
51	1	51	61
52	1	52	61
53	1	53	61
54	1	54	61
55	1	55	61
56	1	56	61
57	1	57	61
58	1	58	61
59	1	59	61
60	1	60	61
61	2	1	2
62	2	1	5
63	3	1	21
64	3	1	41
65	2	2	3
66	3	2	22
67	3	2	42
68	2	3	4
69	3	3	23
70	3	3	43
71	2	4	5
72	3	4	24
73	3	4	44
74	3	5	25
75	3	5	45
76	2	24	14
77	2	24	43
78	3	24	44
79	2	43	53
80	3	43	23
81	2	53	36
82	3	53	13
83	3	53	33
84	2	36	14
85	3	36	16
86	3	36	56
87	3	14	34
88	3	14	54
89	2	44	25
90	2	44	54
91	2	54	37
92	3	54	34
93	2	37	15
94	3	37	57
95	3	37	17
96	2	15	25
97	3	15	35
98	3	15	55
99	3	25	45
100	2	21	45
101	2	21	11
102	3	21	41
103	2	45	55
104	2	55	38
105	3	55	35
106	2	38	11
107	3	38	58
108	3	38	18
109	3	11	51
110	3	11	31
111	2	34	57
112	2	34	16
113	2	16	6
114	3	16	56
115	2	6	27
116	3	6	26
117	3	6	46
118	3	27	7
119	3	27	47
120	2	27	57
121	3	57	17
122	2	35	17
123	2	35	58
124	2	17	7
125	2	7	28
126	3	7	47
127	2	28	58
128	3	28	48
129	3	28	8
130	3	58	18
131	2	31	18
132	3	31	51
133	2	18	8
134	2	8	29
135	3	8	48
136	3	29	49
137	3	29	9
138	2	29	59
139	3	59	19
140	3	59	39
141	2	59	31
142	2	41	51
143	2	51	39
144	2	39	12
145	3	39	19
146	2	12	22
147	3	12	32
148	3	12	52
149	2	22	41
150	3	22	42
151	2	23	42
152	2	42	52
153	2	52	40
154	3	52	32
155	3	40	60
156	3	40	20
157	2	40	13
158	3	13	33
159	2	13	23
160	2	60	32
161	2	32	19
162	2	19	9
163	2	9	30
164	2	30	60
165	3	9	49
166	3	30	50
167	3	30	10
168	3	60	20
169	2	47	48
170	2	48	49
171	2	49	50
172	2	50	46
173	2	46	47
174	3	50	10
175	3	46	26
176	2	26	56
177	2	56	33
178	2	33	20
179	2	20	10
180	2	10	26
181	1	206	266
182	1	207	266
183	1	208	266
184	1	209	266
185	1	210	266
186	1	211	266
187	1	212	266
188	1	213	266
189	1	214	266
190	1	215	266
191	1	216	266
192	1	217	266
193	1	218	266
194	1	219	266
195	1	220	266
196	1	221	266
197	1	222	266
198	1	223	266
199	1	224	266
200	1	225	266
201	1	226	266
202	1	227	266
203	1	228	266
204	1	229	266
205	1	230	266
206	1	231	266
207	1	232	266
208	1	233	266
209	1	234	266
210	1	235	266
211	1	236	266
212	1	237	266
213	1	238	266
214	1	239	266
215	1	240	266
216	1	241	266
217	1	242	266
218	1	243	266
219	1	244	266
220	1	245	266
221	1	246	266
222	1	247	266
223	1	248	266
224	1	249	266
225	1	250	266
226	1	251	266
227	1	252	266
228	1	253	266
229	1	254	266
230	1	255	266
231	1	256	266
232	1	257	266
233	1	258	266
234	1	259	266
235	1	260	266
236	1	261	266
237	1	262	266
238	1	263	266
239	1	264	266
240	1	265	266
241	2	206	207
242	2	206	210
243	3	206	226
244	3	206	246
245	2	207	208
246	3	207	227
247	3	207	247
248	2	208	209
249	3	208	228
250	3	208	248
251	2	209	210
252	3	209	229
253	3	209	249
254	3	210	230
255	3	210	250
256	2	229	219
257	2	229	248
258	3	229	249
259	2	248	258
260	3	248	228
261	2	258	241
262	3	258	218
263	3	258	238
264	2	241	219
265	3	241	221
266	3	241	261
267	3	219	239
268	3	219	259
269	2	249	230
270	2	249	259
271	2	259	242
272	3	259	239
273	2	242	220
274	3	242	262
275	3	242	222
276	2	220	230
277	3	220	240
278	3	220	260
279	3	230	250
280	2	226	250
281	2	226	216
282	3	226	246
283	2	250	260
284	2	260	243
285	3	260	240
286	2	243	216
287	3	243	263
288	3	243	223
289	3	216	256
290	3	216	236
291	2	239	262
292	2	239	221
293	2	221	211
294	3	221	261
295	2	211	232
296	3	211	231
297	3	211	251
298	3	232	212
299	3	232	252
300	2	232	262
301	3	262	222
302	2	240	222
303	2	240	263
304	2	222	212
305	2	212	233
306	3	212	252
307	2	233	263
308	3	233	253
309	3	233	213
310	3	263	223
311	2	236	223
312	3	236	256
313	2	223	213
314	2	213	234
315	3	213	253
316	3	234	254
317	3	234	214
318	2	234	264
319	3	264	224
320	3	264	244
321	2	264	236
322	2	246	256
323	2	256	244
324	2	244	217
325	3	244	224
326	2	217	227
327	3	217	237
328	3	217	257
329	2	227	246
330	3	227	247
331	2	228	247
332	2	247	257
333	2	257	245
334	3	257	237
335	3	245	265
336	3	245	225
337	2	245	218
338	3	218	238
339	2	218	228
340	2	265	237
341	2	237	224
342	2	224	214
343	2	214	235
344	2	235	265
345	3	214	254
346	3	235	255
347	3	235	215
348	3	265	225
349	2	252	253
350	2	253	254
351	2	254	255
352	2	255	251
353	2	251	252
354	3	255	215
355	3	251	231
356	2	231	261
357	2	261	238
358	2	238	225
359	2	225	215
360	2	215	231
361	1	267	327
362	1	268	327
363	1	269	327
364	1	270	327
365	1	271	327
366	1	272	327
367	1	273	327
368	1	274	327
369	1	275	327
370	1	276	327
371	1	277	327
372	1	278	327
373	1	279	327
374	1	280	327
375	1	281	327
376	1	282	327
377	1	283	327
378	1	284	327
379	1	285	327
380	1	286	327
381	1	287	327
382	1	288	327
383	1	289	327
384	1	290	327
385	1	291	327
386	1	292	327
387	1	293	327
388	1	294	327
389	1	295	327
390	1	296	327
391	1	297	327
392	1	298	327
393	1	299	327
394	1	300	327
395	1	301	327
396	1	302	327
397	1	303	327
398	1	304	327
399	1	305	327
400	1	306	327
401	1	307	327
402	1	308	327
403	1	309	327
404	1	310	327
405	1	311	327
406	1	312	327
407	1	313	327
408	1	314	327
409	1	315	327
410	1	316	327
411	1	317	327
412	1	318	327
413	1	319	327
414	1	320	327
415	1	321	327
416	1	322	327
417	1	323	327
418	1	324	327
419	1	325	327
420	1	326	327
421	2	267	268
422	2	267	271
423	3	267	287
424	3	267	307
425	2	268	269
426	3	268	288
427	3	268	308
428	2	269	270
429	3	269	289
430	3	269	309
431	2	270	271
432	3	270	290
433	3	270	310
434	3	271	291
435	3	271	311
436	2	290	280
437	2	290	309
438	3	290	310
439	2	309	319
440	3	309	289
441	2	319	302
442	3	319	279
443	3	319	299
444	2	302	280
445	3	302	282
446	3	302	322
447	3	280	300
448	3	280	320
449	2	310	291
450	2	310	320
451	2	320	303
452	3	320	300
453	2	303	281
454	3	303	323
455	3	303	283
456	2	281	291
457	3	281	301
458	3	281	321
459	3	291	311
460	2	287	311
461	2	287	277
462	3	287	307
463	2	311	321
464	2	321	304
465	3	321	301
466	2	304	277
467	3	304	324
468	3	304	284
469	3	277	317
470	3	277	297
471	2	300	323
472	2	300	282
473	2	282	272
474	3	282	322
475	2	272	293
476	3	272	292
477	3	272	312
478	3	293	273
479	3	293	313
480	2	293	323
481	3	323	283
482	2	301	283
483	2	301	324
484	2	283	273
485	2	273	294
486	3	273	313
487	2	294	324
488	3	294	314
489	3	294	274
490	3	324	284
491	2	297	284
492	3	297	317
493	2	284	274
494	2	274	295
495	3	274	314
496	3	295	315
497	3	295	275
498	2	295	325
499	3	325	285
500	3	325	305
501	2	325	297
502	2	307	317
503	2	317	305
504	2	305	278
505	3	305	285